<?xml version="1.0"?>
<VTKFile type="PolyData" version="0.1" byte_order="LittleEndian" header_type="UInt32" compressor="vtkZLibDataCompressor">
  <PolyData>
    <Piece NumberOfPoints="290" NumberOfVerts="0" NumberOfLines="0" NumberOfStrips="0" NumberOfPolys="288">
      <PointData>
        <DataArray type="Float64" Name="U" NumberOfComponents="3" ComponentName0="D1" ComponentName1="D2" ComponentName2="D3" format="ascii" RangeMin="0" RangeMax="0.00007395151270352758">
          0 0 0 0 0 0
          0 0 0 0 0 0
          0 0 0 0 0 0
          0 0 0 0 0 0
          0 0 0 0 0 0
          0 0 0 0 0 0
          0 0 0 0 0 0
          0 0 0 0 0 0
          0 0 0 0 0 0
          0 0 0 0 0 0
          0 0 0 0 0 0
          0 0 0 0 0 0
          0 0 0 0 0 0
          0 0 0 0 0 0
          0 0 0 0 0 0
          0 0 0 0 0 0
          0 0 0 0 0 0
          0 0 0 0 0 0
          0 0 0 0 0 0
          0 0 0 0 0 0
          0 0 0 0 0 0
          0 0 0 0 0 0
          0 0 0 0 0 0
          0 0 0 0 0 0
          0 0 0 0 0 0
          0 0 0 0 0 0
          0 0 0 0 0 0
          0 0 0 0 0 0
          0 0 0 0 0 0
          0 0 0 0 0 0
          0 0 0 0 0 0
          0 0 0 0 0 0
          0 0 0 0 0 0
          0 0 0 0 0 0
          0 0 0 0 0 0
          0 0 0 0 0 0
          0 0 0 0 0 0
          0 0 0 0 0 0
          0 0 0 0 0 0
          0 0 0 0 0 0
          0 0 0 -0.0000229139 -0.0000229207 -0.00000328597
          -0.0000228304 -0.0000127165 0.00000479699 -0.0000230698 -0.00000729386 0.00000612932
          -0.000023124 -0.0000033281 0.00000675495 -0.0000230831 9.5824e-8 0.00000694054
          -0.0000229908 0.00000346206 0.00000679629 -0.0000228808 0.00000730828 0.00000618485
          -0.0000226627 0.0000126295 0.00000484245 -0.0000227794 0.0000227741 -0.00000319135
          -0.0000127127 -0.0000228078 0.0000048136 -0.0000126317 0.0000226853 0.00000482502
          -0.00000731568 -0.0000230308 0.00000615965 -0.00000728639 0.0000229197 0.00000615374
          -0.00000338526 -0.0000230986 0.00000678258 -0.00000340417 0.0000230164 0.00000676881
          2.19751e-8 -0.0000231029 0.00000695146 -2.22279e-8 0.0000230628 0.00000693038
          0.00000341679 -0.0000230596 0.00000678919 0.00000337227 0.0000230555 0.00000676233
          0.00000731887 -0.0000229675 0.00000617169 0.00000728249 0.0000229841 0.00000614228
          0.0000126871 -0.0000227336 0.00000483337 0.0000126584 0.0000227612 0.00000480636
          0.0000228601 -0.0000228306 -0.00000323312 0.0000227559 -0.0000126555 0.00000481651
          0.0000229804 -0.00000728314 0.00000615417 0.0000230594 -0.00000337727 0.00000677443
          0.0000230828 1.71635e-8 0.00000694108 0.0000230556 0.00000341191 0.00000677738
          0.0000229712 0.00000731826 0.00000615998 0.0000227389 0.00001269 0.00000482331
          0.0000228357 0.0000228652 -0.00000324342 -0.0000311612 -0.000031156 0.00000839176
          -0.0000316036 -0.0000221071 0.0000143415 -0.0000319803 -0.0000133959 0.0000178081
          -0.0000321461 -0.00000623282 0.0000192449 -0.0000320764 1.76645e-7 0.000019697
          -0.0000318798 0.0000064858 0.0000192587 -0.0000315977 0.0000134289 0.000017813
          -0.0000312638 0.0000219432 0.0000143267 -0.0000308912 0.0000308993 0.00000841041
          -0.0000221157 -0.0000315471 0.0000143674 -0.000021932 0.0000313214 0.0000143003
          -0.0000134465 -0.0000318943 0.0000178553 -0.0000133763 0.0000316836 0.0000177666
          -0.0000063446 -0.0000320911 0.0000192961 -0.00000637269 0.0000319333 0.0000192091
          3.93135e-8 -0.000032115 0.0000197373 -3.97768e-8 0.0000320356 0.0000196584
          0.0000064021 -0.0000320178 0.0000192868 0.00000631427 0.0000320073 0.0000192187
          0.0000134504 -0.0000317729 0.0000178398 0.0000133723 0.0000318064 0.0000177831
          0.0000220594 -0.0000314056 0.0000143563 0.00002199 0.0000314642 0.0000143136
          0.000031061 -0.0000309889 0.00000840945 0.0000314581 -0.0000219862 0.0000143312
          0.0000318033 -0.0000133737 0.0000178071 0.0000320186 -0.00000632121 0.0000192505
          0.0000320752 3.68418e-8 0.0000196983 0.0000320063 0.0000063954 0.0000192555
          0.0000317758 0.0000134492 0.0000178162 0.0000314116 0.0000220633 0.0000143389
          0.0000309944 0.0000310667 0.00000839518 -0.0000362927 -0.0000362652 0.0000212486
          -0.0000365008 -0.0000267804 0.0000254973 -0.0000368322 -0.0000173181 0.0000290846
          -0.0000369278 -0.00000827076 0.000031195 -0.0000368003 2.54233e-7 0.0000318262
          -0.0000365551 0.00000864611 0.0000311 -0.0000362954 0.0000173938 0.0000289221
          -0.0000360259 0.0000265884 0.0000253082 -0.0000359124 0.0000359448 0.0000210725
          -0.0000268095 -0.0000364051 0.0000255171 -0.0000265543 0.000036123 0.000025288
          -0.0000174009 -0.0000366946 0.0000291207 -0.0000173065 0.0000364304 0.0000288863
          -0.00000843632 -0.000036836 0.0000312502 -0.00000847918 0.0000366421 0.0000310452
          5.78221e-8 -0.0000368444 0.0000319058 -5.83277e-8 0.0000367515 0.0000317471
          0.00000852425 -0.0000367413 0.0000312052 0.00000838995 0.0000367377 0.0000310915
          0.0000174172 -0.0000365355 0.0000290441 0.0000172906 0.000036591 0.0000289653
          0.0000267417 -0.0000362186 0.0000254296 0.0000266239 0.0000363099 0.000025379
          0.0000361621 -0.0000360439 0.0000211696 0.0000363063 -0.0000266226 0.0000254004
          0.0000365896 -0.0000172942 0.0000289995 0.0000367518 -0.00000839792 0.0000311454
          0.0000367976 5.92053e-8 0.0000318272 0.0000367266 0.0000085166 0.0000311522
          0.0000365364 0.0000174138 0.0000290105 0.0000362218 0.0000267433 0.0000254084
          0.0000360462 0.0000361647 0.0000211558 -0.0000395399 -0.0000394941 0.0000327438
          -0.0000396342 -0.0000297403 0.0000362155 -0.0000397422 -0.000019703 0.0000396136
          -0.0000397033 -0.00000961712 0.000041868 -0.000039517 3.31528e-7 0.0000425433
          -0.0000393034 0.0000101259 0.000041601 -0.0000391637 0.0000198613 0.0000391999
          -0.0000391173 0.0000295793 0.0000357894 -0.0000391206 0.0000391739 0.0000323417
          -0.0000297921 -0.0000395155 0.0000362106 -0.0000295199 0.0000392384 0.0000357925
          -0.0000198209 -0.0000395796 0.000039605 -0.000019737 0.0000393232 0.0000392055
          -0.0000098313 -0.0000395921 0.0000418973 -0.00000990975 0.0000394087 0.0000415682
          8.39612e-8 -0.0000395537 0.0000426596 -8.44553e-8 0.0000394745 0.0000424242
          0.00000996599 -0.0000394933 0.0000418097 0.00000977381 0.0000395077 0.0000416578
          0.0000198706 -0.0000394122 0.0000394535 0.0000196876 0.0000394907 0.0000393607
          0.0000297425 -0.0000393163 0.0000360303 0.0000295712 0.0000394362 0.000035978
          0.0000394159 -0.0000392535 0.0000325513 0.00003944 -0.0000295779 0.0000360001
          0.0000394936 -0.0000196995 0.000039401 0.0000395211 -0.00000978986 0.0000417301
          0.0000395134 8.0459e-8 0.0000425428 0.0000394788 0.00000995039 0.0000417384
          0.0000394084 0.0000198591 0.0000394138 0.0000393118 0.0000297362 0.0000360084
          0.0000392476 0.0000394106 0.0000325402 -0.0000425843 -0.0000425487 0.0000429536
          -0.0000425815 -0.0000325943 0.0000462431 -0.0000424897 -0.0000220216 0.000049483
          -0.0000423064 -0.0000108518 0.0000516784 -0.0000420807 4.77418e-7 0.0000522795
          -0.0000419215 0.0000115922 0.0000512486 -0.0000419291 0.0000222833 0.0000488371
          -0.0000420732 0.0000324443 0.000045616 -0.0000421671 0.0000422129 0.0000423879
          -0.0000326414 -0.0000424752 0.0000462112 -0.000032655 -0.0000325698 0.0000494114
          -0.0000326182 -0.0000220572 0.000052551 -0.0000325392 -0.0000109517 0.0000546648
          -0.00003242 3.49931e-7 0.000055231 -0.0000323176 0.0000114961 0.0000542213
          -0.0000322905 0.0000222482 0.0000518895 -0.0000323483 0.0000324389 0.000048778
          -0.0000323871 0.0000421842 0.0000456452 -0.0000221628 -0.0000423417 0.0000494198
          -0.0000221835 -0.0000325238 0.0000525135 -0.0000221678 -0.0000220661 0.0000556338
          -0.0000221589 -0.0000109961 0.0000577525 -0.0000221389 2.85439e-7 0.0000583311
          -0.0000221111 0.0000114326 0.0000573365 -0.0000220943 0.0000221994 0.0000550145
          -0.0000221166 0.0000323866 0.0000519231 -0.0000221335 0.0000420759 0.0000488944
          -0.0000111369 -0.0000422045 0.000051669 -0.0000111647 -0.0000324741 0.000054669
          -0.0000111619 -0.0000220816 0.000057777 -0.000011186 -0.0000110522 0.0000599321
          -0.0000112232 2.18873e-7 0.0000605688 -0.0000112521 0.0000113875 0.0000596204
          -0.000011265 0.0000221899 0.0000573086 -0.0000112814 0.0000323814 0.0000542113
          -0.0000113045 0.0000420187 0.0000512511 1.32262e-7 -0.000042114 0.0000524204
          1.0081e-7 -0.0000324258 0.000055376 8.51043e-8 -0.0000220863 0.0000584717
          5.22573e-8 -0.0000111026 0.000060661 -7.66133e-11 1.53082e-7 0.0000613631
          -5.25159e-8 0.0000113448 0.000060475 -8.56706e-8 0.0000221916 0.0000581863
          -1.01777e-7 0.0000324113 0.0000550806 -1.33278e-7 0.000042042 0.0000521332
          0.0000113569 -0.0000420964 0.0000515496 0.0000113283 -0.0000323978 0.0000545225
          0.0000112957 -0.0000220785 0.0000576142 0.000011267 -0.0000111308 0.0000598202
          0.0000112231 1.04191e-7 0.0000605679 0.0000111708 0.0000113081 0.0000597309
          0.0000111303 0.0000221913 0.000057471 0.0000111157 0.0000324558 0.0000543591
          0.0000110821 0.0000421257 0.0000513733 0.0000222706 -0.0000421588 0.0000492103
          0.0000222456 -0.0000323994 0.0000522601 0.0000221999 -0.0000220681 0.000055354
          0.0000221722 -0.0000111399 0.00005756 0.000022138 7.88356e-8 0.0000583292
          0.0000220963 0.000011287 0.0000575254 0.0000220605 0.0000221934 0.0000552931
          0.000022053 0.0000325072 0.0000521791 0.0000220251 0.0000422566 0.0000491091
          0.0000326256 -0.0000422567 0.000045958 0.0000325888 -0.0000324301 0.0000491127
          0.0000325137 -0.0000220779 0.0000522289 0.0000324575 -0.0000111491 0.0000544453
          0.0000324174 7.42653e-8 0.0000552288 0.0000323946 0.0000112959 0.0000544368
          0.0000323918 0.0000222216 0.0000522106 0.0000324133 0.0000325729 0.0000490801
          0.0000324037 0.0000423984 0.000045905 0.0000424849 -0.0000422864 0.0000426796
          0.0000424127 -0.0000324243 0.0000459278 0.0000422662 -0.0000220582 0.0000491535
          0.0000421404 -0.0000111302 0.0000514576 0.0000420768 8.97443e-8 0.0000522777
          0.0000420801 0.0000113097 0.0000514663 0.000042148 0.0000222383 0.0000491665
          0.0000422414 0.0000326058 0.0000459355 0.0000422689 0.0000424682 0.0000426694
          <InformationKey name="L2_NORM_RANGE" location="vtkDataArray" length="2">
            <Value index="0">
              0
            </Value>
            <Value index="1">
              7.3951512704e-05
            </Value>
          </InformationKey>
        </DataArray>
        <DataArray type="Float64" Name="S" NumberOfComponents="6" ComponentName0="XX" ComponentName1="YY" ComponentName2="ZZ" ComponentName3="XY" ComponentName4="YZ" ComponentName5="ZX" format="ascii" RangeMin="0.16539597900363992" RangeMax="10.253518729129041">
          -5.15059 -5.15059 -5.97208 -1.91683e-7 -2.86502 -2.86416
          -4.4789 -4.47889 -3.27967 3.90966e-9 -1.5895 -2.85373
          -4.36975 -4.36973 -2.83747 1.73397e-7 -0.911697 -2.88365
          -4.3148 -4.31477 -2.62612 3.87909e-8 -0.415996 -2.89042
          -4.29152 -4.29149 -2.55645 -2.14206e-8 0.0119777 -2.88531
          -4.29573 -4.2957 -2.59672 -5.7674e-8 0.43274 -2.87378
          -4.34387 -4.34385 -2.79771 -1.48387e-7 0.913499 -2.86002
          -4.4573 -4.45729 -3.24671 2.8028e-8 1.57863 -2.83276
          -5.12833 -5.12833 -5.92617 2.13288e-7 2.84668 -2.84735
          -4.47563 -4.47564 -3.27226 1.81931e-9 -2.85089 -1.58903
          -3.79548 -3.79548 -0.546066 1.53023e-7 -1.58719 -1.58865
          -3.68251 -3.6825 -0.0885804 2.24085e-7 -0.905449 -1.60043
          -3.62524 -3.62522 0.132084 7.52875e-8 -0.415991 -1.60905
          -3.60318 -3.60316 0.196883 -2.59407e-8 0.00631133 -1.60753
          -3.61093 -3.61091 0.142457 -1.03176e-7 0.424161 -1.59976
          -3.66387 -3.66386 -0.0777615 -2.06923e-7 0.904395 -1.58679
          -3.78105 -3.78105 -0.541779 -1.21312e-7 1.57751 -1.57596
          -4.4603 -4.46031 -3.25408 2.59271e-8 2.83559 -1.57891
          -4.36282 -4.36285 -2.82299 1.67268e-7 -2.87878 -0.914424
          -3.67912 -3.67913 -0.0830333 2.19917e-7 -1.59849 -0.907718
          -3.56876 -3.56876 0.363557 2.16461e-7 -0.912354 -0.913697
          -3.51314 -3.51314 0.57853 1.14533e-7 -0.419099 -0.919043
          -3.49202 -3.49201 0.641463 -9.66228e-9 0.00422993 -0.919751
          -3.50014 -3.50014 0.587391 -1.27071e-7 0.423654 -0.915367
          -3.55228 -3.55228 0.371339 -2.15833e-7 0.909319 -0.907986
          -3.66712 -3.66713 -0.0832938 -2.11348e-7 1.58873 -0.902122
          -4.3505 -4.35053 -2.81214 -1.54619e-7 2.86489 -0.910764
          -4.30903 -4.30906 -2.61348 4.04338e-8 -2.88725 -0.42314
          -3.62179 -3.62181 0.139232 7.86941e-8 -1.60825 -0.42017
          -3.51215 -3.51215 0.581542 1.14425e-7 -0.918708 -0.42155
          -3.45798 -3.45798 0.793039 7.75077e-8 -0.422975 -0.424245
          -3.43908 -3.43908 0.853176 1.1182e-8 0.00275557 -0.425389
          -3.44898 -3.44898 0.79811 -6.69852e-8 0.425468 -0.424233
          -3.50113 -3.50113 0.584368 -1.27248e-7 0.915658 -0.421221
          -3.61435 -3.61436 0.135268 -9.97915e-8 1.6005 -0.419949
          -4.30143 -4.30146 -2.60931 -5.60133e-8 2.87697 -0.425504
          -4.29246 -4.29249 -2.55469 -1.07717e-8 -2.88778 0.00274682
          -3.60413 -3.60415 0.200501 -1.38232e-8 -1.60961 0.00125395
          -3.49404 -3.49405 0.642718 -8.22267e-9 -0.920615 0.000964955
          -3.4409 -3.4409 0.852934 8.12039e-9 -0.424685 0.000660508
          -3.42474 -3.42474 0.910544 1.66456e-8 0.00153964 -0.0000195311
          -3.43726 -3.43726 0.85342 8.18215e-9 0.426051 -0.000698039
          -3.48998 -3.48999 0.640208 -8.4646e-9 0.918834 -0.000994436
          -3.60218 -3.6022 0.19331 -1.4159e-8 1.6054 -0.0012779
          -4.29047 -4.29049 -2.55796 -1.10478e-8 2.88278 -0.00277842
          -4.30442 -4.30445 -2.60721 -5.3669e-8 -2.88238 0.427082
          -3.61741 -3.61742 0.141306 -9.77066e-8 -1.6048 0.42153
          -3.50648 -3.50648 0.585476 -1.27738e-7 -0.917198 0.422329
          -3.45357 -3.45357 0.796626 -6.90732e-8 -0.423587 0.424782
          -3.43908 -3.43908 0.853182 8.84356e-9 0.000969465 0.425357
          -3.4534 -3.4534 0.794487 7.54358e-8 0.424833 0.423619
          -3.50682 -3.50682 0.580364 1.13618e-7 0.917178 0.420359
          -3.61873 -3.61874 0.133213 8.02947e-8 1.604 0.418544
          -4.30603 -4.30606 -2.61554 4.24645e-8 2.88186 0.421517
          -4.35557 -4.35559 -2.81272 -1.61263e-7 -2.87086 0.914822
          -3.67238 -3.6724 -0.0799926 -2.18369e-7 -1.59284 0.906239
          -3.56 -3.56 0.369553 -2.212e-7 -0.909994 0.911567
          -3.50638 -3.50637 0.584022 -1.23594e-7 -0.420332 0.91753
          -3.49201 -3.492 0.641487 -1.0517e-9 0.00111374 0.919721
          -3.50692 -3.50692 0.581841 1.17852e-7 0.422372 0.916833
          -3.56108 -3.56108 0.365213 2.10942e-7 0.91169 0.910106
          -3.67399 -3.674 -0.0863945 2.12552e-7 1.59444 0.903582
          -4.35802 -4.35804 -2.82253 1.60489e-7 2.87294 0.910276
          -4.4671 -4.46711 -3.2588 1.29167e-8 -2.84163 1.58582
          -3.78797 -3.78797 -0.542283 -1.37605e-7 -1.58079 1.58348
          -3.67297 -3.67295 -0.0822671 -2.18723e-7 -0.903315 1.59421
          -3.61797 -3.61795 0.137726 -9.36939e-8 -0.4184 1.60463
          -3.60316 -3.60314 0.196947 -4.78121e-9 0.00166263 1.6075
          -3.61819 -3.61817 0.136848 8.43968e-8 0.421687 1.60416
          -3.67342 -3.67341 -0.0840931 2.12208e-7 0.906515 1.59306
          -3.78881 -3.78881 -0.545636 1.36823e-7 1.58393 1.58123
          -4.46936 -4.46937 -3.2678 -1.09799e-8 2.84508 1.58224
          -5.13932 -5.13932 -5.94759 2.03375e-7 -2.85375 2.85744
          -4.46852 -4.46851 -3.26442 1.21778e-8 -1.58188 2.84441
          -4.35705 -4.35703 -2.81856 -1.63148e-7 -0.910356 2.87247
          -4.30537 -4.30534 -2.61182 -5.22258e-8 -0.422142 2.88235
          -4.29148 -4.29145 -2.55627 -4.63034e-9 0.00214536 2.88528
          -4.30512 -4.30509 -2.61083 4.39602e-8 0.426472 2.88188
          -4.35657 -4.35654 -2.81662 1.58607e-7 0.914747 2.87132
          -4.46795 -4.46794 -3.26215 -1.17168e-8 1.58619 2.84228
          -5.14017 -5.14017 -5.95102 -2.01363e-7 2.85807 2.85439
          -0.281409 -0.280646 -1.78274 0.0245572 -0.936841 -0.93509
          -0.262831 -0.839657 -1.00035 -0.00743868 -0.793202 -0.950068
          -0.333245 -1.72614 -0.67373 -0.0120992 -0.714843 -0.96788
          -0.356568 -1.9956 -0.513778 -0.000821422 -0.338836 -0.974746
          -0.35887 -2.06565 -0.45237 0.00265661 0.0136236 -0.972219
          -0.355969 -2.00244 -0.49674 0.00406413 0.358118 -0.965244
          -0.331703 -1.73223 -0.651583 0.0114061 0.717162 -0.95482
          -0.261473 -0.841866 -0.984276 0.00522114 0.785401 -0.939581
          -0.2791 -0.27986 -1.76469 -0.0256783 0.926946 -0.928615
          -0.840992 -0.263351 -0.99486 -0.00649977 -0.948615 -0.791843
          -0.840705 -0.261146 -0.98981 0.00615566 0.941007 -0.786644
          -1.72863 -0.333987 -0.662699 -0.0114726 -0.965211 -0.717317
          -1.72984 -0.330965 -0.662516 0.0120489 0.957439 -0.714502
          -1.99795 -0.357165 -0.503211 -0.00153107 -0.972905 -0.347035
          -2.00019 -0.355266 -0.50714 0.00338815 0.967029 -0.349739
          -2.06548 -0.359408 -0.448655 0.000943695 -0.973706 0.00287048
          -2.06606 -0.358359 -0.455885 0.000944355 0.970675 -0.00289113
          -1.99951 -0.356476 -0.50085 0.00290598 -0.970306 0.351381
          -1.99867 -0.356054 -0.509499 -0.00194639 0.969681 0.345371
          -1.72968 -0.332417 -0.658553 0.011793 -0.96098 0.718384
          -1.72877 -0.33255 -0.666702 -0.0116977 0.961798 0.71349
          -0.840986 -0.261946 -0.989126 0.00621031 -0.944104 0.790873
          -0.840557 -0.262383 -0.995527 -0.00641652 0.945648 0.787733
          -0.280617 -0.280103 -1.77269 -0.025153 -0.930561 0.932963
          -0.262474 -0.840927 -0.992988 0.00642095 -0.787396 0.945275
          -0.332668 -1.7294 -0.663349 0.0119242 -0.713454 0.961539
          -0.356379 -1.99927 -0.505563 0.00266236 -0.345879 0.970026
          -0.358867 -2.06576 -0.452201 0.000249131 0.00248687 0.972189
          -0.356149 -1.99893 -0.5047 -0.00219439 0.35088 0.969957
          -0.332297 -1.72906 -0.661851 -0.0115661 0.718415 0.961235
          -0.261853 -0.840617 -0.99164 -0.00620492 0.791205 0.944475
          -0.279782 -0.280298 -1.7747 0.0251023 0.933287 0.930891
          -0.101608 -0.100762 0.703822 -0.10419 -0.0903043 -0.0892098
          -0.128117 -0.284882 0.0826339 -0.0453585 -0.290464 -0.100193
          -0.0684559 -0.499181 0.385907 -0.0240268 -0.320042 -0.105427
          -0.073218 -0.806108 0.552287 -0.00624253 -0.190851 -0.107976
          -0.077385 -0.906961 0.613867 0.00655278 0.010762 -0.10547
          -0.0758384 -0.821463 0.559919 0.0148588 0.206248 -0.100223
          -0.0715557 -0.516945 0.393009 0.02361 0.322083 -0.0947707
          -0.130096 -0.292967 0.0814305 0.0405065 0.284755 -0.092197
          -0.102505 -0.103275 0.690665 0.099329 0.0836338 -0.0845752
          -0.28746 -0.130132 0.086126 -0.043735 -0.0988721 -0.289568
          -0.290514 -0.128036 0.0779795 0.0421455 0.093557 -0.285387
          -0.504077 -0.0711536 0.394638 -0.0231665 -0.103033 -0.322271
          -0.512187 -0.0687316 0.384441 0.02444 0.0970811 -0.31944
          -0.810414 -0.0748464 0.562268 -0.0085938 -0.10631 -0.198062
          -0.817403 -0.0741645 0.550041 0.0124876 0.10173 -0.198942
          -0.906094 -0.0775494 0.619813 0.00197904 -0.106613 0.00165677
          -0.908184 -0.0773088 0.607987 0.00200516 0.104198 -0.00165927
          -0.814651 -0.0747292 0.560914 0.0116964 -0.104353 0.200615
          -0.813134 -0.0743256 0.551458 -0.00929737 0.103714 0.196392
          -0.509132 -0.0700798 0.392732 0.0241985 -0.0998149 0.322974
          -0.507036 -0.0698737 0.386343 -0.0233768 0.100328 0.318928
          -0.289473 -0.129089 0.0837197 0.0429311 -0.0956131 0.289013
          -0.288411 -0.129122 0.0803818 -0.0429453 0.0968029 0.286087
          -0.102448 -0.102195 0.697473 0.101723 -0.0856101 0.0880155
          -0.129276 -0.289184 0.0818854 0.0429558 -0.28558 0.0965584
          -0.0701182 -0.508429 0.389076 0.0238956 -0.318221 0.100189
          -0.0746414 -0.814141 0.555871 0.0106755 -0.195586 0.104054
          -0.0774202 -0.907154 0.613977 0.000200408 0.00293999 0.105403
          -0.0744124 -0.813676 0.556583 -0.010324 0.201403 0.104011
          -0.0698338 -0.50775 0.390046 -0.0236803 0.32367 0.099952
          -0.128932 -0.288703 0.082238 -0.04292 0.289513 0.0958573
          -0.101607 -0.101862 0.697173 -0.101833 0.0882493 0.0858487
          0.0623849 0.0627855 0.73557 -0.0435075 0.00996537 0.00989371
          0.014086 -0.0376326 0.328225 -0.0305523 0.0126738 0.0198148
          0.0332886 -0.11105 0.300924 -0.0199475 -0.0380869 0.0309816
          0.0487193 -0.21695 0.414372 -0.00212208 -0.0401635 0.037334
          0.0482098 -0.283575 0.457586 0.00955896 0.0037389 0.0409172
          0.0439061 -0.236542 0.413776 0.0148155 0.0460021 0.0415882
          0.0275221 -0.133485 0.29708 0.0194808 0.0400388 0.0368162
          0.010489 -0.0475345 0.316425 0.0235785 -0.0133473 0.0242055
          0.0605717 0.0601549 0.712447 0.0364723 -0.0122964 0.0125939
          -0.0408143 0.0102333 0.328105 -0.0282044 0.0212336 0.0122339
          -0.0443385 0.0143218 0.316439 0.0258539 -0.0227657 0.0141145
          -0.117534 0.0278966 0.30452 -0.0188766 0.0330092 -0.0400769
          -0.127134 0.0327554 0.29332 0.0204494 -0.0349153 -0.0377115
          -0.222705 0.0450793 0.420076 -0.00590301 0.0388211 -0.0438483
          -0.230948 0.0474109 0.407894 0.0110049 -0.04026 -0.0422627
          -0.282431 0.0478422 0.462771 0.00250022 0.0406694 -0.0000250077
          -0.284794 0.0485476 0.452269 0.00254504 -0.0412689 0.000097465
          -0.227766 0.0461165 0.417657 0.00986503 0.0396072 0.0438845
          -0.225831 0.0464501 0.410419 -0.00698341 -0.0394747 0.0423553
          -0.123601 0.0302583 0.300923 0.0200891 0.034253 0.0402827
          -0.120919 0.0305288 0.297019 -0.0191963 -0.0336879 0.0376751
          -0.0432417 0.0122007 0.322879 0.0269875 0.0225009 -0.0119613
          -0.0418248 0.0123958 0.321762 -0.0270743 -0.021542 -0.0142695
          0.0611377 0.0613621 0.723769 0.0398689 0.0123054 -0.0103139
          0.0122686 -0.042645 0.32226 0.0269376 0.0148827 -0.0216992
          0.0303661 -0.122481 0.298659 0.0195656 -0.0363016 -0.0338411
          0.046227 -0.226967 0.413774 0.00837021 -0.0400582 -0.0395066
          0.0481798 -0.283652 0.457578 -0.000045107 0.00314916 -0.040973
          0.0463397 -0.226652 0.414363 -0.00847817 0.0461406 -0.0395763
          0.0304205 -0.122042 0.299316 -0.0197202 0.0416358 -0.0341012
          0.0123293 -0.0424208 0.322396 -0.0271237 -0.0113567 -0.0223438
          0.0619289 0.0617037 0.724459 -0.0400935 -0.0100896 -0.0120762
          0.0583354 0.0598137 0.334501 -0.0144732 0.0412452 0.0401289
          0.0427382 0.061804 0.181139 -0.0106092 0.0659878 0.0419338
          0.0448612 0.0944769 0.128881 -0.00602781 0.0593102 0.0565183
          0.0520377 0.0977313 0.153836 0.00378927 0.0217942 0.0650921
          0.0532929 0.0843692 0.173151 0.0093876 -0.00273981 0.0675602
          0.048093 0.0730404 0.150386 0.00855413 -0.024832 0.0648287
          0.039955 0.0648804 0.122585 0.00521565 -0.0576318 0.0563405
          0.0390989 0.0467426 0.171147 0.00350368 -0.0626394 0.0421529
          0.056658 0.0551508 0.320908 0.00766391 -0.0392 0.0404227
          0.0565856 0.039581 0.178467 -0.00820596 0.043204 0.0643313
          0.0519582 0.0421873 0.173664 0.00579451 -0.0409046 0.0644352
          0.0854606 0.040203 0.127746 -0.00499335 0.057592 0.0577921
          0.0737164 0.0443961 0.123458 0.00612294 -0.0553269 0.0592916
          0.090428 0.0491331 0.154661 -0.000169032 0.0657636 0.0221289
          0.0801651 0.0508664 0.149334 0.00456425 -0.0642031 0.0245934
          0.0858913 0.0534437 0.175551 0.00214959 0.0679512 -0.000822582
          0.0827815 0.0531498 0.170588 0.00216672 -0.067194 0.000915413
          0.0839937 0.0503817 0.153714 0.00348207 0.0651329 -0.023337
          0.0866227 0.0496809 0.150339 -0.00124718 -0.0648352 -0.0232094
          0.0776833 0.0424822 0.126399 0.00574282 0.0565821 -0.0578684
          0.0816079 0.0422706 0.124911 -0.00535189 -0.0563314 -0.0590803
          0.0531934 0.0408545 0.176068 0.00683874 0.0423072 -0.0636399
          0.0554381 0.0409901 0.176179 -0.00715961 -0.0417938 -0.065043
          0.057038 0.0575606 0.327406 0.0108586 0.040938 -0.0396838
          0.0407847 0.0544868 0.176162 0.00672992 0.0654995 -0.0418011
          0.042314 0.0797741 0.125523 0.00512704 0.0603745 -0.0563326
          0.0499652 0.0853643 0.151894 0.0018208 0.0255956 -0.0649427
          0.0532762 0.0843115 0.173099 -0.000586737 0.00243112 -0.0675741
          0.0500933 0.0852528 0.152193 -0.00289638 -0.0209961 -0.0650274
          0.0424378 0.079525 0.125803 -0.00596427 -0.056592 -0.056582
          0.0410609 0.0541497 0.176093 -0.00726754 -0.06319 -0.0423002
          0.0580645 0.0575431 0.328164 -0.0112254 -0.0395583 -0.0408093
          0.0865376 0.0893862 0.153252 0.00954274 0.0293539 0.0266505
          0.0803649 0.164637 0.105641 0.0089794 0.051333 0.0276403
          0.0876468 0.337579 0.0871172 0.0127433 0.049887 0.0400564
          0.096345 0.466919 0.107164 0.0130679 0.020448 0.0479173
          0.0961289 0.486438 0.114993 0.00811828 -0.00863104 0.0484716
          0.0869587 0.411713 0.0978888 -0.00253993 -0.0318629 0.0443247
          0.075413 0.272278 0.0750759 -0.0138687 -0.0492912 0.0358656
          0.070621 0.130583 0.0960391 -0.0155459 -0.0449449 0.0257593
          0.0799975 0.0771292 0.146531 -0.0153254 -0.0236372 0.0263489
          0.154277 0.0779443 0.10173 0.0112332 0.0300713 0.0479823
          0.149366 0.151876 0.054651 0.00585633 0.0405161 0.0368975
          0.161193 0.323206 0.0350635 0.0044562 0.035777 0.042033
          0.17606 0.458513 0.0543363 0.00336576 0.0109627 0.0458268
          0.180586 0.493821 0.0645989 0.0018493 -0.00981335 0.0469446
          0.172147 0.433129 0.0504849 -0.00188593 -0.0240504 0.0455753
          0.154201 0.292708 0.0303501 -0.00716035 -0.0354372 0.0418587
          0.138767 0.136184 0.0511113 -0.00964149 -0.0336098 0.037115
          0.140843 0.072956 0.0998428 -0.0134107 -0.0233727 0.0482596
          0.31638 0.0827865 0.0820336 0.0143347 0.0414489 0.0483719
          0.314786 0.162948 0.0345651 0.00567523 0.0454217 0.0334798
          0.33549 0.344422 0.0135298 0.0000110911 0.0397199 0.0368173
          0.361466 0.486266 0.0339 -0.00447384 0.0125813 0.0414052
          0.371014 0.524988 0.0438841 -0.00520573 -0.00995986 0.0447827
          0.35978 0.465827 0.0291268 -0.00399937 -0.0259851 0.0455107
          0.329803 0.320861 0.0077912 -0.00397795 -0.0396824 0.0423854
          0.301084 0.152294 0.0308092 -0.00605102 -0.0386069 0.0376081
          0.292989 0.0800018 0.0798989 -0.0124647 -0.0345029 0.050793
          0.447579 0.0932937 0.103632 0.0107437 0.0484572 0.0243377
          0.449125 0.178939 0.0539434 0.00456202 0.0480953 0.0140116
          0.474519 0.370645 0.0334356 -0.00259559 0.043543 0.0143626
          0.508852 0.52002 0.0560656 -0.0104806 0.0166852 0.0176784
          0.524747 0.562361 0.0677928 -0.0124001 -0.00695157 0.0220406
          0.513784 0.502838 0.0529382 -0.00809818 -0.0260121 0.0248767
          0.477436 0.35059 0.0295428 -0.00231744 -0.0435347 0.0240902
          0.442389 0.169143 0.0508283 -0.000920122 -0.0433809 0.0209911
          0.430471 0.0897825 0.101175 -0.00500415 -0.0437699 0.028085
          0.48721 0.0975629 0.115689 0.00282455 0.049402 -0.00142756
          0.492516 0.184352 0.0653677 0.00181953 0.0480887 -0.00302484
          0.519876 0.378075 0.0444052 -0.00283695 0.0449615 -0.00431194
          0.557631 0.530923 0.0682452 -0.0102338 0.0199818 -0.00323643
          0.576547 0.576692 0.081412 -0.0137156 -0.00327397 -0.0000202764
          0.566792 0.518735 0.0672974 -0.0103149 -0.0242201 0.00319899
          0.529964 0.363864 0.0432909 -0.00299233 -0.044707 0.00429653
          0.495029 0.176698 0.0637912 0.00167796 -0.0458183 0.00305174
          0.485216 0.0945722 0.114132 0.00275243 -0.0475052 0.00153228
          0.434903 0.0922507 0.102586 -0.00637507 0.0462296 -0.0267622
          0.442087 0.176231 0.0525537 -0.00218308 0.0461151 -0.0190872
          0.470413 0.36444 0.0312358 -0.00268803 0.0437762 -0.0216647
          0.506881 0.514722 0.0543036 -0.00686691 0.0209658 -0.0232127
          0.52472 0.562312 0.0677684 -0.010653 -0.000748696 -0.0221049
          0.515756 0.508049 0.0546629 -0.00941355 -0.0217155 -0.0194746
          0.481539 0.35674 0.0316996 -0.00332693 -0.043252 -0.0168541
          0.449383 0.17185 0.0521892 0.00298377 -0.0453156 -0.0158647
          0.443191 0.0908845 0.102272 0.00921454 -0.0459689 -0.0254626
          0.300186 0.0814466 0.0807982 -0.0131528 0.0378924 -0.0494557
          0.304618 0.158395 0.0326195 -0.00643957 0.0421431 -0.0359113
          0.328796 0.333986 0.0102662 -0.00454615 0.0399899 -0.0404004
          0.357676 0.47723 0.0311468 -0.00501549 0.0196528 -0.0441846
          0.370908 0.524972 0.0438459 -0.00661601 0.000374421 -0.0448429
          0.363429 0.474786 0.0317936 -0.00560504 -0.0188637 -0.0428525
          0.336412 0.331255 0.0109865 -0.000811946 -0.0392667 -0.0388603
          0.311213 0.156925 0.0327528 0.00510759 -0.041768 -0.0351453