    1C
    1UConcrete Curing Thermal Stress Analysis                           
    1UUSER                                                              
    1UDATE              18.june.2025                                    
    1UTIME              16:55:12                                        
    1UHOST                                                              
    1UPGM               CalculiX                                        
    1UVERSION           Version 2.12                             
    1UCOMPILETIME       Tue, Apr 04, 2017  8:36:16 PM                    
    1UDIR                                                               
    1UDBN                                                               
    1UMAT    1CONC                                                      
    2C                           486                                     1
 -1         1 1.10000E+00 1.10000E+00 0.00000E+00
 -1         2 1.10000E+00 1.20000E+00 0.00000E+00
 -1         3 1.10000E+00 1.30000E+00 0.00000E+00
 -1         4 1.10000E+00 1.40000E+00 0.00000E+00
 -1         5 1.10000E+00 1.50000E+00 0.00000E+00
 -1         6 1.10000E+00 1.60000E+00 0.00000E+00
 -1         7 1.10000E+00 1.70000E+00 0.00000E+00
 -1         8 1.10000E+00 1.80000E+00 0.00000E+00
 -1         9 1.10000E+00 1.90000E+00 0.00000E+00
 -1        10 1.20000E+00 1.10000E+00 0.00000E+00
 -1        11 1.20000E+00 1.20000E+00 0.00000E+00
 -1        12 1.20000E+00 1.30000E+00 0.00000E+00
 -1        13 1.20000E+00 1.40000E+00 0.00000E+00
 -1        14 1.20000E+00 1.50000E+00 0.00000E+00
 -1        15 1.20000E+00 1.60000E+00 0.00000E+00
 -1        16 1.20000E+00 1.70000E+00 0.00000E+00
 -1        17 1.20000E+00 1.80000E+00 0.00000E+00
 -1        18 1.20000E+00 1.90000E+00 0.00000E+00
 -1        19 1.30000E+00 1.10000E+00 0.00000E+00
 -1        20 1.30000E+00 1.20000E+00 0.00000E+00
 -1        21 1.30000E+00 1.30000E+00 0.00000E+00
 -1        22 1.30000E+00 1.40000E+00 0.00000E+00
 -1        23 1.30000E+00 1.50000E+00 0.00000E+00
 -1        24 1.30000E+00 1.60000E+00 0.00000E+00
 -1        25 1.30000E+00 1.70000E+00 0.00000E+00
 -1        26 1.30000E+00 1.80000E+00 0.00000E+00
 -1        27 1.30000E+00 1.90000E+00 0.00000E+00
 -1        28 1.40000E+00 1.10000E+00 0.00000E+00
 -1        29 1.40000E+00 1.20000E+00 0.00000E+00
 -1        30 1.40000E+00 1.30000E+00 0.00000E+00
 -1        31 1.40000E+00 1.40000E+00 0.00000E+00
 -1        32 1.40000E+00 1.50000E+00 0.00000E+00
 -1        33 1.40000E+00 1.60000E+00 0.00000E+00
 -1        34 1.40000E+00 1.70000E+00 0.00000E+00
 -1        35 1.40000E+00 1.80000E+00 0.00000E+00
 -1        36 1.40000E+00 1.90000E+00 0.00000E+00
 -1        37 1.50000E+00 1.10000E+00 0.00000E+00
 -1        38 1.50000E+00 1.20000E+00 0.00000E+00
 -1        39 1.50000E+00 1.30000E+00 0.00000E+00
 -1        40 1.50000E+00 1.40000E+00 0.00000E+00
 -1        41 1.50000E+00 1.50000E+00 0.00000E+00
 -1        42 1.50000E+00 1.60000E+00 0.00000E+00
 -1        43 1.50000E+00 1.70000E+00 0.00000E+00
 -1        44 1.50000E+00 1.80000E+00 0.00000E+00
 -1        45 1.50000E+00 1.90000E+00 0.00000E+00
 -1        46 1.60000E+00 1.10000E+00 0.00000E+00
 -1        47 1.60000E+00 1.20000E+00 0.00000E+00
 -1        48 1.60000E+00 1.30000E+00 0.00000E+00
 -1        49 1.60000E+00 1.40000E+00 0.00000E+00
 -1        50 1.60000E+00 1.50000E+00 0.00000E+00
 -1        51 1.60000E+00 1.60000E+00 0.00000E+00
 -1        52 1.60000E+00 1.70000E+00 0.00000E+00
 -1        53 1.60000E+00 1.80000E+00 0.00000E+00
 -1        54 1.60000E+00 1.90000E+00 0.00000E+00
 -1        55 1.70000E+00 1.10000E+00 0.00000E+00
 -1        56 1.70000E+00 1.20000E+00 0.00000E+00
 -1        57 1.70000E+00 1.30000E+00 0.00000E+00
 -1        58 1.70000E+00 1.40000E+00 0.00000E+00
 -1        59 1.70000E+00 1.50000E+00 0.00000E+00
 -1        60 1.70000E+00 1.60000E+00 0.00000E+00
 -1        61 1.70000E+00 1.70000E+00 0.00000E+00
 -1        62 1.70000E+00 1.80000E+00 0.00000E+00
 -1        63 1.70000E+00 1.90000E+00 0.00000E+00
 -1        64 1.80000E+00 1.10000E+00 0.00000E+00
 -1        65 1.80000E+00 1.20000E+00 0.00000E+00
 -1        66 1.80000E+00 1.30000E+00 0.00000E+00
 -1        67 1.80000E+00 1.40000E+00 0.00000E+00
 -1        68 1.80000E+00 1.50000E+00 0.00000E+00
 -1        69 1.80000E+00 1.60000E+00 0.00000E+00
 -1        70 1.80000E+00 1.70000E+00 0.00000E+00
 -1        71 1.80000E+00 1.80000E+00 0.00000E+00
 -1        72 1.80000E+00 1.90000E+00 0.00000E+00
 -1        73 1.90000E+00 1.10000E+00 0.00000E+00
 -1        74 1.90000E+00 1.20000E+00 0.00000E+00
 -1        75 1.90000E+00 1.30000E+00 0.00000E+00
 -1        76 1.90000E+00 1.40000E+00 0.00000E+00
 -1        77 1.90000E+00 1.50000E+00 0.00000E+00
 -1        78 1.90000E+00 1.60000E+00 0.00000E+00
 -1        79 1.90000E+00 1.70000E+00 0.00000E+00
 -1        80 1.90000E+00 1.80000E+00 0.00000E+00
 -1        81 1.90000E+00 1.90000E+00 0.00000E+00
 -1        82 1.10000E+00 1.10000E+00 1.00000E-01
 -1        83 1.10000E+00 1.20000E+00 1.00000E-01
 -1        84 1.10000E+00 1.30000E+00 1.00000E-01
 -1        85 1.10000E+00 1.40000E+00 1.00000E-01
 -1        86 1.10000E+00 1.50000E+00 1.00000E-01
 -1        87 1.10000E+00 1.60000E+00 1.00000E-01
 -1        88 1.10000E+00 1.70000E+00 1.00000E-01
 -1        89 1.10000E+00 1.80000E+00 1.00000E-01
 -1        90 1.10000E+00 1.90000E+00 1.00000E-01
 -1        91 1.20000E+00 1.10000E+00 1.00000E-01
 -1        92 1.20000E+00 1.20000E+00 1.00000E-01
 -1        93 1.20000E+00 1.30000E+00 1.00000E-01
 -1        94 1.20000E+00 1.40000E+00 1.00000E-01
 -1        95 1.20000E+00 1.50000E+00 1.00000E-01
 -1        96 1.20000E+00 1.60000E+00 1.00000E-01
 -1        97 1.20000E+00 1.70000E+00 1.00000E-01
 -1        98 1.20000E+00 1.80000E+00 1.00000E-01
 -1        99 1.20000E+00 1.90000E+00 1.00000E-01
 -1       100 1.30000E+00 1.10000E+00 1.00000E-01
 -1       101 1.30000E+00 1.20000E+00 1.00000E-01
 -1       102 1.30000E+00 1.30000E+00 1.00000E-01
 -1       103 1.30000E+00 1.40000E+00 1.00000E-01
 -1       104 1.30000E+00 1.50000E+00 1.00000E-01
 -1       105 1.30000E+00 1.60000E+00 1.00000E-01
 -1       106 1.30000E+00 1.70000E+00 1.00000E-01
 -1       107 1.30000E+00 1.80000E+00 1.00000E-01
 -1       108 1.30000E+00 1.90000E+00 1.00000E-01
 -1       109 1.40000E+00 1.10000E+00 1.00000E-01
 -1       110 1.40000E+00 1.20000E+00 1.00000E-01
 -1       111 1.40000E+00 1.30000E+00 1.00000E-01
 -1       112 1.40000E+00 1.40000E+00 1.00000E-01
 -1       113 1.40000E+00 1.50000E+00 1.00000E-01
 -1       114 1.40000E+00 1.60000E+00 1.00000E-01
 -1       115 1.40000E+00 1.70000E+00 1.00000E-01
 -1       116 1.40000E+00 1.80000E+00 1.00000E-01
 -1       117 1.40000E+00 1.90000E+00 1.00000E-01
 -1       118 1.50000E+00 1.10000E+00 1.00000E-01
 -1       119 1.50000E+00 1.20000E+00 1.00000E-01
 -1       120 1.50000E+00 1.30000E+00 1.00000E-01
 -1       121 1.50000E+00 1.40000E+00 1.00000E-01
 -1       122 1.50000E+00 1.50000E+00 1.00000E-01
 -1       123 1.50000E+00 1.60000E+00 1.00000E-01
 -1       124 1.50000E+00 1.70000E+00 1.00000E-01
 -1       125 1.50000E+00 1.80000E+00 1.00000E-01
 -1       126 1.50000E+00 1.90000E+00 1.00000E-01
 -1       127 1.60000E+00 1.10000E+00 1.00000E-01
 -1       128 1.60000E+00 1.20000E+00 1.00000E-01
 -1       129 1.60000E+00 1.30000E+00 1.00000E-01
 -1       130 1.60000E+00 1.40000E+00 1.00000E-01
 -1       131 1.60000E+00 1.50000E+00 1.00000E-01
 -1       132 1.60000E+00 1.60000E+00 1.00000E-01
 -1       133 1.60000E+00 1.70000E+00 1.00000E-01
 -1       134 1.60000E+00 1.80000E+00 1.00000E-01
 -1       135 1.60000E+00 1.90000E+00 1.00000E-01
 -1       136 1.70000E+00 1.10000E+00 1.00000E-01
 -1       137 1.70000E+00 1.20000E+00 1.00000E-01
 -1       138 1.70000E+00 1.30000E+00 1.00000E-01
 -1       139 1.70000E+00 1.40000E+00 1.00000E-01
 -1       140 1.70000E+00 1.50000E+00 1.00000E-01
 -1       141 1.70000E+00 1.60000E+00 1.00000E-01
 -1       142 1.70000E+00 1.70000E+00 1.00000E-01
 -1       143 1.70000E+00 1.80000E+00 1.00000E-01
 -1       144 1.70000E+00 1.90000E+00 1.00000E-01
 -1       145 1.80000E+00 1.10000E+00 1.00000E-01
 -1       146 1.80000E+00 1.20000E+00 1.00000E-01
 -1       147 1.80000E+00 1.30000E+00 1.00000E-01
 -1       148 1.80000E+00 1.40000E+00 1.00000E-01
 -1       149 1.80000E+00 1.50000E+00 1.00000E-01
 -1       150 1.80000E+00 1.60000E+00 1.00000E-01
 -1       151 1.80000E+00 1.70000E+00 1.00000E-01
 -1       152 1.80000E+00 1.80000E+00 1.00000E-01
 -1       153 1.80000E+00 1.90000E+00 1.00000E-01
 -1       154 1.90000E+00 1.10000E+00 1.00000E-01
 -1       155 1.90000E+00 1.20000E+00 1.00000E-01
 -1       156 1.90000E+00 1.30000E+00 1.00000E-01
 -1       157 1.90000E+00 1.40000E+00 1.00000E-01
 -1       158 1.90000E+00 1.50000E+00 1.00000E-01
 -1       159 1.90000E+00 1.60000E+00 1.00000E-01
 -1       160 1.90000E+00 1.70000E+00 1.00000E-01
 -1       161 1.90000E+00 1.80000E+00 1.00000E-01
 -1       162 1.90000E+00 1.90000E+00 1.00000E-01
 -1       163 1.10000E+00 1.10000E+00 2.00000E-01
 -1       164 1.10000E+00 1.20000E+00 2.00000E-01
 -1       165 1.10000E+00 1.30000E+00 2.00000E-01
 -1       166 1.10000E+00 1.40000E+00 2.00000E-01
 -1       167 1.10000E+00 1.50000E+00 2.00000E-01
 -1       168 1.10000E+00 1.60000E+00 2.00000E-01
 -1       169 1.10000E+00 1.70000E+00 2.00000E-01
 -1       170 1.10000E+00 1.80000E+00 2.00000E-01
 -1       171 1.10000E+00 1.90000E+00 2.00000E-01
 -1       172 1.20000E+00 1.10000E+00 2.00000E-01
 -1       173 1.20000E+00 1.20000E+00 2.00000E-01
 -1       174 1.20000E+00 1.30000E+00 2.00000E-01
 -1       175 1.20000E+00 1.40000E+00 2.00000E-01
 -1       176 1.20000E+00 1.50000E+00 2.00000E-01
 -1       177 1.20000E+00 1.60000E+00 2.00000E-01
 -1       178 1.20000E+00 1.70000E+00 2.00000E-01
 -1       179 1.20000E+00 1.80000E+00 2.00000E-01
 -1       180 1.20000E+00 1.90000E+00 2.00000E-01
 -1       181 1.30000E+00 1.10000E+00 2.00000E-01
 -1       182 1.30000E+00 1.20000E+00 2.00000E-01
 -1       183 1.30000E+00 1.30000E+00 2.00000E-01
 -1       184 1.30000E+00 1.40000E+00 2.00000E-01
 -1       185 1.30000E+00 1.50000E+00 2.00000E-01
 -1       186 1.30000E+00 1.60000E+00 2.00000E-01
 -1       187 1.30000E+00 1.70000E+00 2.00000E-01
 -1       188 1.30000E+00 1.80000E+00 2.00000E-01
 -1       189 1.30000E+00 1.90000E+00 2.00000E-01
 -1       190 1.40000E+00 1.10000E+00 2.00000E-01
 -1       191 1.40000E+00 1.20000E+00 2.00000E-01
 -1       192 1.40000E+00 1.30000E+00 2.00000E-01
 -1       193 1.40000E+00 1.40000E+00 2.00000E-01
 -1       194 1.40000E+00 1.50000E+00 2.00000E-01
 -1       195 1.40000E+00 1.60000E+00 2.00000E-01
 -1       196 1.40000E+00 1.70000E+00 2.00000E-01
 -1       197 1.40000E+00 1.80000E+00 2.00000E-01
 -1       198 1.40000E+00 1.90000E+00 2.00000E-01
 -1       199 1.50000E+00 1.10000E+00 2.00000E-01
 -1       200 1.50000E+00 1.20000E+00 2.00000E-01
 -1       201 1.50000E+00 1.30000E+00 2.00000E-01
 -1       202 1.50000E+00 1.40000E+00 2.00000E-01
 -1       203 1.50000E+00 1.50000E+00 2.00000E-01
 -1       204 1.50000E+00 1.60000E+00 2.00000E-01
 -1       205 1.50000E+00 1.70000E+00 2.00000E-01
 -1       206 1.50000E+00 1.80000E+00 2.00000E-01
 -1       207 1.50000E+00 1.90000E+00 2.00000E-01
 -1       208 1.60000E+00 1.10000E+00 2.00000E-01
 -1       209 1.60000E+00 1.20000E+00 2.00000E-01
 -1       210 1.60000E+00 1.30000E+00 2.00000E-01
 -1       211 1.60000E+00 1.40000E+00 2.00000E-01
 -1       212 1.60000E+00 1.50000E+00 2.00000E-01
 -1       213 1.60000E+00 1.60000E+00 2.00000E-01
 -1       214 1.60000E+00 1.70000E+00 2.00000E-01
 -1       215 1.60000E+00 1.80000E+00 2.00000E-01
 -1       216 1.60000E+00 1.90000E+00 2.00000E-01
 -1       217 1.70000E+00 1.10000E+00 2.00000E-01
 -1       218 1.70000E+00 1.20000E+00 2.00000E-01
 -1       219 1.70000E+00 1.30000E+00 2.00000E-01
 -1       220 1.70000E+00 1.40000E+00 2.00000E-01
 -1       221 1.70000E+00 1.50000E+00 2.00000E-01
 -1       222 1.70000E+00 1.60000E+00 2.00000E-01
 -1       223 1.70000E+00 1.70000E+00 2.00000E-01
 -1       224 1.70000E+00 1.80000E+00 2.00000E-01
 -1       225 1.70000E+00 1.90000E+00 2.00000E-01
 -1       226 1.80000E+00 1.10000E+00 2.00000E-01
 -1       227 1.80000E+00 1.20000E+00 2.00000E-01
 -1       228 1.80000E+00 1.30000E+00 2.00000E-01
 -1       229 1.80000E+00 1.40000E+00 2.00000E-01
 -1       230 1.80000E+00 1.50000E+00 2.00000E-01
 -1       231 1.80000E+00 1.60000E+00 2.00000E-01
 -1       232 1.80000E+00 1.70000E+00 2.00000E-01
 -1       233 1.80000E+00 1.80000E+00 2.00000E-01
 -1       234 1.80000E+00 1.90000E+00 2.00000E-01
 -1       235 1.90000E+00 1.10000E+00 2.00000E-01
 -1       236 1.90000E+00 1.20000E+00 2.00000E-01
 -1       237 1.90000E+00 1.30000E+00 2.00000E-01
 -1       238 1.90000E+00 1.40000E+00 2.00000E-01
 -1       239 1.90000E+00 1.50000E+00 2.00000E-01
 -1       240 1.90000E+00 1.60000E+00 2.00000E-01
 -1       241 1.90000E+00 1.70000E+00 2.00000E-01
 -1       242 1.90000E+00 1.80000E+00 2.00000E-01
 -1       243 1.90000E+00 1.90000E+00 2.00000E-01
 -1       244 1.10000E+00 1.10000E+00 3.00000E-01
 -1       245 1.10000E+00 1.20000E+00 3.00000E-01
 -1       246 1.10000E+00 1.30000E+00 3.00000E-01
 -1       247 1.10000E+00 1.40000E+00 3.00000E-01
 -1       248 1.10000E+00 1.50000E+00 3.00000E-01
 -1       249 1.10000E+00 1.60000E+00 3.00000E-01
 -1       250 1.10000E+00 1.70000E+00 3.00000E-01
 -1       251 1.10000E+00 1.80000E+00 3.00000E-01
 -1       252 1.10000E+00 1.90000E+00 3.00000E-01
 -1       253 1.20000E+00 1.10000E+00 3.00000E-01
 -1       254 1.20000E+00 1.20000E+00 3.00000E-01
 -1       255 1.20000E+00 1.30000E+00 3.00000E-01
 -1       256 1.20000E+00 1.40000E+00 3.00000E-01
 -1       257 1.20000E+00 1.50000E+00 3.00000E-01
 -1       258 1.20000E+00 1.60000E+00 3.00000E-01
 -1       259 1.20000E+00 1.70000E+00 3.00000E-01
 -1       260 1.20000E+00 1.80000E+00 3.00000E-01
 -1       261 1.20000E+00 1.90000E+00 3.00000E-01
 -1       262 1.30000E+00 1.10000E+00 3.00000E-01
 -1       263 1.30000E+00 1.20000E+00 3.00000E-01
 -1       264 1.30000E+00 1.30000E+00 3.00000E-01
 -1       265 1.30000E+00 1.40000E+00 3.00000E-01
 -1       266 1.30000E+00 1.50000E+00 3.00000E-01
 -1       267 1.30000E+00 1.60000E+00 3.00000E-01
 -1       268 1.30000E+00 1.70000E+00 3.00000E-01
 -1       269 1.30000E+00 1.80000E+00 3.00000E-01
 -1       270 1.30000E+00 1.90000E+00 3.00000E-01
 -1       271 1.40000E+00 1.10000E+00 3.00000E-01
 -1       272 1.40000E+00 1.20000E+00 3.00000E-01
 -1       273 1.40000E+00 1.30000E+00 3.00000E-01
 -1       274 1.40000E+00 1.40000E+00 3.00000E-01
 -1       275 1.40000E+00 1.50000E+00 3.00000E-01
 -1       276 1.40000E+00 1.60000E+00 3.00000E-01
 -1       277 1.40000E+00 1.70000E+00 3.00000E-01
 -1       278 1.40000E+00 1.80000E+00 3.00000E-01
 -1       279 1.40000E+00 1.90000E+00 3.00000E-01
 -1       280 1.50000E+00 1.10000E+00 3.00000E-01
 -1       281 1.50000E+00 1.20000E+00 3.00000E-01
 -1       282 1.50000E+00 1.30000E+00 3.00000E-01
 -1       283 1.50000E+00 1.40000E+00 3.00000E-01
 -1       284 1.50000E+00 1.50000E+00 3.00000E-01
 -1       285 1.50000E+00 1.60000E+00 3.00000E-01
 -1       286 1.50000E+00 1.70000E+00 3.00000E-01
 -1       287 1.50000E+00 1.80000E+00 3.00000E-01
 -1       288 1.50000E+00 1.90000E+00 3.00000E-01
 -1       289 1.60000E+00 1.10000E+00 3.00000E-01
 -1       290 1.60000E+00 1.20000E+00 3.00000E-01
 -1       291 1.60000E+00 1.30000E+00 3.00000E-01
 -1       292 1.60000E+00 1.40000E+00 3.00000E-01
 -1       293 1.60000E+00 1.50000E+00 3.00000E-01
 -1       294 1.60000E+00 1.60000E+00 3.00000E-01
 -1       295 1.60000E+00 1.70000E+00 3.00000E-01
 -1       296 1.60000E+00 1.80000E+00 3.00000E-01
 -1       297 1.60000E+00 1.90000E+00 3.00000E-01
 -1       298 1.70000E+00 1.10000E+00 3.00000E-01
 -1       299 1.70000E+00 1.20000E+00 3.00000E-01
 -1       300 1.70000E+00 1.30000E+00 3.00000E-01
 -1       301 1.70000E+00 1.40000E+00 3.00000E-01
 -1       302 1.70000E+00 1.50000E+00 3.00000E-01
 -1       303 1.70000E+00 1.60000E+00 3.00000E-01
 -1       304 1.70000E+00 1.70000E+00 3.00000E-01
 -1       305 1.70000E+00 1.80000E+00 3.00000E-01
 -1       306 1.70000E+00 1.90000E+00 3.00000E-01
 -1       307 1.80000E+00 1.10000E+00 3.00000E-01
 -1       308 1.80000E+00 1.20000E+00 3.00000E-01
 -1       309 1.80000E+00 1.30000E+00 3.00000E-01
 -1       310 1.80000E+00 1.40000E+00 3.00000E-01
 -1       311 1.80000E+00 1.50000E+00 3.00000E-01
 -1       312 1.80000E+00 1.60000E+00 3.00000E-01
 -1       313 1.80000E+00 1.70000E+00 3.00000E-01
 -1       314 1.80000E+00 1.80000E+00 3.00000E-01
 -1       315 1.80000E+00 1.90000E+00 3.00000E-01
 -1       316 1.90000E+00 1.10000E+00 3.00000E-01
 -1       317 1.90000E+00 1.20000E+00 3.00000E-01
 -1       318 1.90000E+00 1.30000E+00 3.00000E-01
 -1       319 1.90000E+00 1.40000E+00 3.00000E-01
 -1       320 1.90000E+00 1.50000E+00 3.00000E-01
 -1       321 1.90000E+00 1.60000E+00 3.00000E-01
 -1       322 1.90000E+00 1.70000E+00 3.00000E-01
 -1       323 1.90000E+00 1.80000E+00 3.00000E-01
 -1       324 1.90000E+00 1.90000E+00 3.00000E-01
 -1       325 1.10000E+00 1.10000E+00 4.00000E-01
 -1       326 1.10000E+00 1.20000E+00 4.00000E-01
 -1       327 1.10000E+00 1.30000E+00 4.00000E-01
 -1       328 1.10000E+00 1.40000E+00 4.00000E-01
 -1       329 1.10000E+00 1.50000E+00 4.00000E-01
 -1       330 1.10000E+00 1.60000E+00 4.00000E-01
 -1       331 1.10000E+00 1.70000E+00 4.00000E-01
 -1       332 1.10000E+00 1.80000E+00 4.00000E-01
 -1       333 1.10000E+00 1.90000E+00 4.00000E-01
 -1       334 1.20000E+00 1.10000E+00 4.00000E-01
 -1       335 1.20000E+00 1.20000E+00 4.00000E-01
 -1       336 1.20000E+00 1.30000E+00 4.00000E-01
 -1       337 1.20000E+00 1.40000E+00 4.00000E-01
 -1       338 1.20000E+00 1.50000E+00 4.00000E-01
 -1       339 1.20000E+00 1.60000E+00 4.00000E-01
 -1       340 1.20000E+00 1.70000E+00 4.00000E-01
 -1       341 1.20000E+00 1.80000E+00 4.00000E-01
 -1       342 1.20000E+00 1.90000E+00 4.00000E-01
 -1       343 1.30000E+00 1.10000E+00 4.00000E-01
 -1       344 1.30000E+00 1.20000E+00 4.00000E-01
 -1       345 1.30000E+00 1.30000E+00 4.00000E-01
 -1       346 1.30000E+00 1.40000E+00 4.00000E-01
 -1       347 1.30000E+00 1.50000E+00 4.00000E-01
 -1       348 1.30000E+00 1.60000E+00 4.00000E-01
 -1       349 1.30000E+00 1.70000E+00 4.00000E-01
 -1       350 1.30000E+00 1.80000E+00 4.00000E-01
 -1       351 1.30000E+00 1.90000E+00 4.00000E-01
 -1       352 1.40000E+00 1.10000E+00 4.00000E-01
 -1       353 1.40000E+00 1.20000E+00 4.00000E-01
 -1       354 1.40000E+00 1.30000E+00 4.00000E-01
 -1       355 1.40000E+00 1.40000E+00 4.00000E-01
 -1       356 1.40000E+00 1.50000E+00 4.00000E-01
 -1       357 1.40000E+00 1.60000E+00 4.00000E-01
 -1       358 1.40000E+00 1.70000E+00 4.00000E-01
 -1       359 1.40000E+00 1.80000E+00 4.00000E-01
 -1       360 1.40000E+00 1.90000E+00 4.00000E-01
 -1       361 1.50000E+00 1.10000E+00 4.00000E-01
 -1       362 1.50000E+00 1.20000E+00 4.00000E-01
 -1       363 1.50000E+00 1.30000E+00 4.00000E-01
 -1       364 1.50000E+00 1.40000E+00 4.00000E-01
 -1       365 1.50000E+00 1.50000E+00 4.00000E-01
 -1       366 1.50000E+00 1.60000E+00 4.00000E-01
 -1       367 1.50000E+00 1.70000E+00 4.00000E-01
 -1       368 1.50000E+00 1.80000E+00 4.00000E-01
 -1       369 1.50000E+00 1.90000E+00 4.00000E-01
 -1       370 1.60000E+00 1.10000E+00 4.00000E-01
 -1       371 1.60000E+00 1.20000E+00 4.00000E-01
 -1       372 1.60000E+00 1.30000E+00 4.00000E-01
 -1       373 1.60000E+00 1.40000E+00 4.00000E-01
 -1       374 1.60000E+00 1.50000E+00 4.00000E-01
 -1       375 1.60000E+00 1.60000E+00 4.00000E-01
 -1       376 1.60000E+00 1.70000E+00 4.00000E-01
 -1       377 1.60000E+00 1.80000E+00 4.00000E-01
 -1       378 1.60000E+00 1.90000E+00 4.00000E-01
 -1       379 1.70000E+00 1.10000E+00 4.00000E-01
 -1       380 1.70000E+00 1.20000E+00 4.00000E-01
 -1       381 1.70000E+00 1.30000E+00 4.00000E-01
 -1       382 1.70000E+00 1.40000E+00 4.00000E-01
 -1       383 1.70000E+00 1.50000E+00 4.00000E-01
 -1       384 1.70000E+00 1.60000E+00 4.00000E-01
 -1       385 1.70000E+00 1.70000E+00 4.00000E-01
 -1       386 1.70000E+00 1.80000E+00 4.00000E-01
 -1       387 1.70000E+00 1.90000E+00 4.00000E-01
 -1       388 1.80000E+00 1.10000E+00 4.00000E-01
 -1       389 1.80000E+00 1.20000E+00 4.00000E-01
 -1       390 1.80000E+00 1.30000E+00 4.00000E-01
 -1       391 1.80000E+00 1.40000E+00 4.00000E-01
 -1       392 1.80000E+00 1.50000E+00 4.00000E-01
 -1       393 1.80000E+00 1.60000E+00 4.00000E-01
 -1       394 1.80000E+00 1.70000E+00 4.00000E-01
 -1       395 1.80000E+00 1.80000E+00 4.00000E-01
 -1       396 1.80000E+00 1.90000E+00 4.00000E-01
 -1       397 1.90000E+00 1.10000E+00 4.00000E-01
 -1       398 1.90000E+00 1.20000E+00 4.00000E-01
 -1       399 1.90000E+00 1.30000E+00 4.00000E-01
 -1       400 1.90000E+00 1.40000E+00 4.00000E-01
 -1       401 1.90000E+00 1.50000E+00 4.00000E-01
 -1       402 1.90000E+00 1.60000E+00 4.00000E-01
 -1       403 1.90000E+00 1.70000E+00 4.00000E-01
 -1       404 1.90000E+00 1.80000E+00 4.00000E-01
 -1       405 1.90000E+00 1.90000E+00 4.00000E-01
 -1       406 1.10000E+00 1.10000E+00 5.00000E-01
 -1       407 1.10000E+00 1.20000E+00 5.00000E-01
 -1       408 1.10000E+00 1.30000E+00 5.00000E-01
 -1       409 1.10000E+00 1.40000E+00 5.00000E-01
 -1       410 1.10000E+00 1.50000E+00 5.00000E-01
 -1       411 1.10000E+00 1.60000E+00 5.00000E-01
 -1       412 1.10000E+00 1.70000E+00 5.00000E-01
 -1       413 1.10000E+00 1.80000E+00 5.00000E-01
 -1       414 1.10000E+00 1.90000E+00 5.00000E-01
 -1       415 1.20000E+00 1.10000E+00 5.00000E-01
 -1       416 1.20000E+00 1.20000E+00 5.00000E-01
 -1       417 1.20000E+00 1.30000E+00 5.00000E-01
 -1       418 1.20000E+00 1.40000E+00 5.00000E-01
 -1       419 1.20000E+00 1.50000E+00 5.00000E-01
 -1       420 1.20000E+00 1.60000E+00 5.00000E-01
 -1       421 1.20000E+00 1.70000E+00 5.00000E-01
 -1       422 1.20000E+00 1.80000E+00 5.00000E-01
 -1       423 1.20000E+00 1.90000E+00 5.00000E-01
 -1       424 1.30000E+00 1.10000E+00 5.00000E-01
 -1       425 1.30000E+00 1.20000E+00 5.00000E-01
 -1       426 1.30000E+00 1.30000E+00 5.00000E-01
 -1       427 1.30000E+00 1.40000E+00 5.00000E-01
 -1       428 1.30000E+00 1.50000E+00 5.00000E-01
 -1       429 1.30000E+00 1.60000E+00 5.00000E-01
 -1       430 1.30000E+00 1.70000E+00 5.00000E-01
 -1       431 1.30000E+00 1.80000E+00 5.00000E-01
 -1       432 1.30000E+00 1.90000E+00 5.00000E-01
 -1       433 1.40000E+00 1.10000E+00 5.00000E-01
 -1       434 1.40000E+00 1.20000E+00 5.00000E-01
 -1       435 1.40000E+00 1.30000E+00 5.00000E-01
 -1       436 1.40000E+00 1.40000E+00 5.00000E-01
 -1       437 1.40000E+00 1.50000E+00 5.00000E-01
 -1       438 1.40000E+00 1.60000E+00 5.00000E-01
 -1       439 1.40000E+00 1.70000E+00 5.00000E-01
 -1       440 1.40000E+00 1.80000E+00 5.00000E-01
 -1       441 1.40000E+00 1.90000E+00 5.00000E-01
 -1       442 1.50000E+00 1.10000E+00 5.00000E-01
 -1       443 1.50000E+00 1.20000E+00 5.00000E-01
 -1       444 1.50000E+00 1.30000E+00 5.00000E-01
 -1       445 1.50000E+00 1.40000E+00 5.00000E-01
 -1       446 1.50000E+00 1.50000E+00 5.00000E-01
 -1       447 1.50000E+00 1.60000E+00 5.00000E-01
 -1       448 1.50000E+00 1.70000E+00 5.00000E-01
 -1       449 1.50000E+00 1.80000E+00 5.00000E-01
 -1       450 1.50000E+00 1.90000E+00 5.00000E-01
 -1       451 1.60000E+00 1.10000E+00 5.00000E-01
 -1       452 1.60000E+00 1.20000E+00 5.00000E-01
 -1       453 1.60000E+00 1.30000E+00 5.00000E-01
 -1       454 1.60000E+00 1.40000E+00 5.00000E-01
 -1       455 1.60000E+00 1.50000E+00 5.00000E-01
 -1       456 1.60000E+00 1.60000E+00 5.00000E-01
 -1       457 1.60000E+00 1.70000E+00 5.00000E-01
 -1       458 1.60000E+00 1.80000E+00 5.00000E-01
 -1       459 1.60000E+00 1.90000E+00 5.00000E-01
 -1       460 1.70000E+00 1.10000E+00 5.00000E-01
 -1       461 1.70000E+00 1.20000E+00 5.00000E-01
 -1       462 1.70000E+00 1.30000E+00 5.00000E-01
 -1       463 1.70000E+00 1.40000E+00 5.00000E-01
 -1       464 1.70000E+00 1.50000E+00 5.00000E-01
 -1       465 1.70000E+00 1.60000E+00 5.00000E-01
 -1       466 1.70000E+00 1.70000E+00 5.00000E-01
 -1       467 1.70000E+00 1.80000E+00 5.00000E-01
 -1       468 1.70000E+00 1.90000E+00 5.00000E-01
 -1       469 1.80000E+00 1.10000E+00 5.00000E-01
 -1       470 1.80000E+00 1.20000E+00 5.00000E-01
 -1       471 1.80000E+00 1.30000E+00 5.00000E-01
 -1       472 1.80000E+00 1.40000E+00 5.00000E-01
 -1       473 1.80000E+00 1.50000E+00 5.00000E-01
 -1       474 1.80000E+00 1.60000E+00 5.00000E-01
 -1       475 1.80000E+00 1.70000E+00 5.00000E-01
 -1       476 1.80000E+00 1.80000E+00 5.00000E-01
 -1       477 1.80000E+00 1.90000E+00 5.00000E-01
 -1       478 1.90000E+00 1.10000E+00 5.00000E-01
 -1       479 1.90000E+00 1.20000E+00 5.00000E-01
 -1       480 1.90000E+00 1.30000E+00 5.00000E-01
 -1       481 1.90000E+00 1.40000E+00 5.00000E-01
 -1       482 1.90000E+00 1.50000E+00 5.00000E-01
 -1       483 1.90000E+00 1.60000E+00 5.00000E-01
 -1       484 1.90000E+00 1.70000E+00 5.00000E-01
 -1       485 1.90000E+00 1.80000E+00 5.00000E-01
 -1       486 1.90000E+00 1.90000E+00 5.00000E-01
 -3
    3C                           320                                     1
 -1         1    1    0    1
 -2         1        10        11         2        82        91        92        83
 -1         2    1    0    1
 -2        82        91        92        83       163       172       173       164
 -1         3    1    0    1
 -2       163       172       173       164       244       253       254       245
 -1         4    1    0    1
 -2       244       253       254       245       325       334       335       326
 -1         5    1    0    1
 -2       325       334       335       326       406       415       416       407
 -1         6    1    0    1
 -2         2        11        12         3        83        92        93        84
 -1         7    1    0    1
 -2        83        92        93        84       164       173       174       165
 -1         8    1    0    1
 -2       164       173       174       165       245       254       255       246
 -1         9    1    0    1
 -2       245       254       255       246       326       335       336       327
 -1        10    1    0    1
 -2       326       335       336       327       407       416       417       408
 -1        11    1    0    1
 -2         3        12        13         4        84        93        94        85
 -1        12    1    0    1
 -2        84        93        94        85       165       174       175       166
 -1        13    1    0    1
 -2       165       174       175       166       246       255       256       247
 -1        14    1    0    1
 -2       246       255       256       247       327       336       337       328
 -1        15    1    0    1
 -2       327       336       337       328       408       417       418       409
 -1        16    1    0    1
 -2         4        13        14         5        85        94        95        86
 -1        17    1    0    1
 -2        85        94        95        86       166       175       176       167
 -1        18    1    0    1
 -2       166       175       176       167       247       256       257       248
 -1        19    1    0    1
 -2       247       256       257       248       328       337       338       329
 -1        20    1    0    1
 -2       328       337       338       329       409       418       419       410
 -1        21    1    0    1
 -2         5        14        15         6        86        95        96        87
 -1        22    1    0    1
 -2        86        95        96        87       167       176       177       168
 -1        23    1    0    1
 -2       167       176       177       168       248       257       258       249
 -1        24    1    0    1
 -2       248       257       258       249       329       338       339       330
 -1        25    1    0    1
 -2       329       338       339       330       410       419       420       411
 -1        26    1    0    1
 -2         6        15        16         7        87        96        97        88
 -1        27    1    0    1
 -2        87        96        97        88       168       177       178       169
 -1        28    1    0    1
 -2       168       177       178       169       249       258       259       250
 -1        29    1    0    1
 -2       249       258       259       250       330       339       340       331
 -1        30    1    0    1
 -2       330       339       340       331       411       420       421       412
 -1        31    1    0    1
 -2         7        16        17         8        88        97        98        89
 -1        32    1    0    1
 -2        88        97        98        89       169       178       179       170
 -1        33    1    0    1
 -2       169       178       179       170       250       259       260       251
 -1        34    1    0    1
 -2       250       259       260       251       331       340       341       332
 -1        35    1    0    1
 -2       331       340       341       332       412       421       422       413
 -1        36    1    0    1
 -2         8        17        18         9        89        98        99        90
 -1        37    1    0    1
 -2        89        98        99        90       170       179       180       171
 -1        38    1    0    1
 -2       170       179       180       171       251       260       261       252
 -1        39    1    0    1
 -2       251       260       261       252       332       341       342       333
 -1        40    1    0    1
 -2       332       341       342       333       413       422       423       414
 -1        41    1    0    1
 -2        10        19        20        11        91       100       101        92
 -1        42    1    0    1